<?xml version="1.0" encoding="UTF-8"?>

<!-- generated on 2025-02-04 21:18:55 by Eclipse SUMO GUI Version 1.21.0
<sumoConfiguration xmlns:xsi="http://www.w3.org/2001/XMLSchema-instance" xsi:noNamespaceSchemaLocation="http://sumo.dlr.de/xsd/sumoConfiguration.xsd">

    <input>
        <net-file value="osm.net.xml.gz"/>
        <route-files value="osm.passenger.trips.xml"/>
        <additional-files value="osm.poly.xml.gz"/>
    </input>

    <output>
        <fcd-output value="fcdOutput.xml"/>
        <summary-output value="fullOutput.xml"/>
        <lanechange-output value="laneChangeOutput.xml"/>
        <collision-output value="collisionOutput.xml"/>
    </output>

    <processing>
        <ignore-route-errors value="true"/>
        <tls.actuated.jam-threshold value="30"/>
    </processing>

    <routing>
        <device.rerouting.adaptation-steps value="18"/>
        <device.rerouting.adaptation-interval value="10"/>
    </routing>

    <report>
        <verbose value="true"/>
        <duration-log.statistics value="true"/>
        <no-step-log value="true"/>
    </report>

    <traci_server>
        <remote-port value="59267"/>
    </traci_server>

    <gui_only>
        <gui-settings-file value="osm.view.xml"/>
        <start value="true"/>
        <delay value="1000"/>
    </gui_only>

</sumoConfiguration>
-->

<fcd-export xmlns:xsi="http://www.w3.org/2001/XMLSchema-instance" xsi:noNamespaceSchemaLocation="http://sumo.dlr.de/xsd/fcd_file.xsd">
    <timestep time="0.00">
        <vehicle id="veh0" x="2390.23" y="282.44" angle="7.99" type="veh_passenger" speed="0.00" pos="5.10" lane="17192247#1_1" slope="0.00"/>
    </timestep>
</fcd-export>
