<?xml version="1.0" encoding="UTF-8"?>

<!-- generated on 2025-01-28 17:52:22 by Eclipse SUMO sumo Version 1.21.0
<sumoConfiguration xmlns:xsi="http://www.w3.org/2001/XMLSchema-instance" xsi:noNamespaceSchemaLocation="http://sumo.dlr.de/xsd/sumoConfiguration.xsd">

    <input>
        <net-file value="osm.net.xml.gz"/>
        <route-files value="osm.passenger.trips.xml"/>
        <additional-files value="osm.poly.xml.gz"/>
    </input>

    <output>
        <fcd-output value="fcd_output.xml"/>
        <summary-output value="summary_output.xml"/>
        <lanechange-output value="lanechange_output.xml"/>
        <collision-output value="collision_output.xml"/>
    </output>

    <processing>
        <ignore-route-errors value="true"/>
        <tls.actuated.jam-threshold value="30"/>
    </processing>

    <routing>
        <device.rerouting.adaptation-steps value="18"/>
        <device.rerouting.adaptation-interval value="10"/>
    </routing>

    <report>
        <verbose value="true"/>
        <duration-log.statistics value="true"/>
        <no-step-log value="true"/>
    </report>

    <traci_server>
        <remote-port value="41043"/>
    </traci_server>

    <gui_only>
        <gui-settings-file value="osm.view.xml"/>
        <start value="true"/>
        <delay value="1000"/>
    </gui_only>

</sumoConfiguration>
-->

<fcd-export xmlns:xsi="http://www.w3.org/2001/XMLSchema-instance" xsi:noNamespaceSchemaLocation="http://sumo.dlr.de/xsd/fcd_file.xsd">
    <timestep time="0.00">
        <vehicle id="veh0" x="2390.23" y="282.44" angle="7.99" type="veh_passenger" speed="0.00" pos="5.10" lane="17192247#1_1" slope="0.00"/>
    </timestep>
    <timestep time="1.00">
        <vehicle id="veh0" x="2390.42" y="283.80" angle="7.99" type="veh_passenger" speed="1.38" pos="6.48" lane="17192247#1_1" slope="0.00"/>
    </timestep>
    <timestep time="2.00">
        <vehicle id="veh0" x="2390.96" y="287.66" angle="7.99" type="veh_passenger" speed="3.90" pos="10.37" lane="17192247#1_1" slope="0.00"/>
    </timestep>
    <timestep time="3.00">
        <vehicle id="veh0" x="2391.83" y="293.85" angle="7.99" type="veh_passenger" speed="6.25" pos="16.62" lane="17192247#1_1" slope="0.00"/>
    </timestep>
    <timestep time="4.00">
        <vehicle id="veh0" x="2393.00" y="302.22" angle="7.99" type="veh_passenger" speed="8.46" pos="25.08" lane="17192247#1_1" slope="0.00"/>
    </timestep>
    <timestep time="5.00">
        <vehicle id="veh0" x="2394.37" y="311.95" angle="8.01" type="veh_passenger" speed="9.82" pos="7.48" lane=":8563990289_0_1" slope="0.00"/>
        <vehicle id="veh1" x="1922.65" y="1332.20" angle="192.86" type="veh_passenger" speed="0.00" pos="5.10" lane="-657499234#1_0" slope="0.00"/>
    </timestep>
    <timestep time="6.00">
        <vehicle id="veh0" x="2396.03" y="323.75" angle="8.01" type="veh_passenger" speed="11.92" pos="4.91" lane=":cluster_7224902542_7281703362_4_1" slope="0.00"/>
        <vehicle id="veh1" x="1922.33" y="1330.84" angle="192.86" type="veh_passenger" speed="1.40" pos="6.50" lane="-657499234#1_0" slope="0.00"/>
    </timestep>
    <timestep time="7.00">
        <vehicle id="veh0" x="2397.95" y="337.43" angle="8.01" type="veh_passenger" speed="13.81" pos="9.21" lane="17192247#3_1" slope="0.00"/>
        <vehicle id="veh1" x="1921.57" y="1327.48" angle="192.86" type="veh_passenger" speed="3.44" pos="9.94" lane="-657499234#1_0" slope="0.00"/>
    </timestep>
    <timestep time="8.00">
        <vehicle id="veh0" x="2400.00" y="352.03" angle="8.01" type="veh_passenger" speed="14.75" pos="23.95" lane="17192247#3_1" slope="0.00"/>
        <vehicle id="veh1" x="1920.44" y="1322.52" angle="192.86" type="veh_passenger" speed="5.09" pos="0.47" lane=":12289220487_1_0" slope="0.00"/>
    </timestep>
    <timestep time="9.00">
        <vehicle id="veh0" x="2401.43" y="362.18" angle="7.93" type="veh_passenger" speed="10.25" pos="34.20" lane="17192247#3_1" slope="0.00"/>
        <vehicle id="veh1" x="1918.96" y="1316.05" angle="192.84" type="veh_passenger" speed="6.64" pos="7.11" lane=":12289220487_1_0" slope="0.00"/>
    </timestep>
    <timestep time="10.00">
        <vehicle id="veh0" x="2401.07" y="368.61" angle="354.93" type="veh_passenger" speed="6.51" pos="6.32" lane=":178366226_8_0" slope="0.00"/>
        <vehicle id="veh1" x="1917.12" y="1307.98" angle="192.85" type="veh_passenger" speed="8.28" pos="5.98" lane="-657499234#0_0" slope="0.00"/>
    </timestep>
    <timestep time="11.00">
        <vehicle id="veh0" x="2395.28" y="372.11" angle="289.33" type="veh_passenger" speed="7.29" pos="1.72" lane="-526346216#1_0" slope="0.00"/>
        <vehicle id="veh1" x="1915.14" y="1299.31" angle="192.85" type="veh_passenger" speed="8.89" pos="14.87" lane="-657499234#0_0" slope="0.00"/>
    </timestep>
    <timestep time="12.00">
        <vehicle id="veh0" x="2385.91" y="373.19" angle="276.61" type="veh_passenger" speed="9.43" pos="11.15" lane="-526346216#1_0" slope="0.00"/>
        <vehicle id="veh1" x="1914.17" y="1295.03" angle="192.85" type="veh_passenger" speed="4.39" pos="19.26" lane="-657499234#0_0" slope="0.00"/>
    </timestep>
    <timestep time="13.00">
        <vehicle id="veh0" x="2375.14" y="374.44" angle="276.61" type="veh_passenger" speed="10.84" pos="21.99" lane="-526346216#1_0" slope="0.00"/>
        <vehicle id="veh1" x="1912.75" y="1288.79" angle="192.73" type="veh_passenger" speed="6.40" pos="4.57" lane=":178416064_1_0" slope="0.00"/>
    </timestep>
    <timestep time="14.00">
        <vehicle id="veh0" x="2362.85" y="375.87" angle="276.61" type="veh_passenger" speed="12.38" pos="34.37" lane="-526346216#1_0" slope="0.00"/>
        <vehicle id="veh1" x="1910.91" y="1280.61" angle="192.72" type="veh_passenger" speed="8.39" pos="12.96" lane=":178416064_1_0" slope="0.00"/>
    </timestep>
    <timestep time="15.00">
        <vehicle id="veh0" x="2348.94" y="377.48" angle="276.61" type="veh_passenger" speed="14.00" pos="48.37" lane="-526346216#1_0" slope="0.00"/>
        <vehicle id="veh1" x="1908.74" y="1271.02" angle="192.70" type="veh_passenger" speed="9.83" pos="0.90" lane="-1000356136#4_0" slope="0.00"/>
        <vehicle id="veh3" x="2063.18" y="1194.70" angle="16.91" type="veh_passenger" speed="0.00" pos="5.10" lane="706192993_0" slope="0.00"/>
    </timestep>
    <timestep time="16.00">
        <vehicle id="veh0" x="2335.31" y="379.06" angle="276.61" type="veh_passenger" speed="13.72" pos="62.09" lane="-526346216#1_0" slope="0.00"/>
        <vehicle id="veh1" x="1906.30" y="1260.09" angle="192.60" type="veh_passenger" speed="11.20" pos="12.10" lane="-1000356136#4_0" slope="0.00"/>
        <vehicle id="veh3" x="2063.82" y="1196.79" angle="16.91" type="veh_passenger" speed="2.18" pos="7.28" lane="706192993_0" slope="0.00"/>
    </timestep>
    <timestep time="17.00">
        <vehicle id="veh0" x="2325.76" y="379.92" angle="273.79" type="veh_passenger" speed="9.61" pos="1.46" lane=":cluster_178366227_178366229_5738963531_7_0" slope="0.00"/>
        <vehicle id="veh1" x="1903.57" y="1247.86" angle="192.60" type="veh_passenger" speed="12.53" pos="24.63" lane="-1000356136#4_0" slope="0.00"/>
        <vehicle id="veh3" x="2065.16" y="1201.21" angle="16.91" type="veh_passenger" speed="4.62" pos="11.90" lane="706192993_0" slope="0.00"/>
    </timestep>
    <timestep time="18.00">
        <vehicle id="veh0" x="2320.65" y="379.65" angle="266.94" type="veh_passenger" speed="5.11" pos="6.58" lane=":cluster_178366227_178366229_5738963531_7_0" slope="0.00"/>
        <vehicle id="veh1" x="1900.52" y="1234.23" angle="192.60" type="veh_passenger" speed="13.97" pos="38.60" lane="-1000356136#4_0" slope="0.00"/>
        <vehicle id="veh3" x="2067.08" y="1207.52" angle="16.91" type="veh_passenger" speed="6.60" pos="18.50" lane="706192993_0" slope="0.00"/>
    </timestep>
    <timestep time="19.00">
        <vehicle id="veh0" x="2313.22" y="378.18" angle="256.20" type="veh_passenger" speed="7.59" pos="5.43" lane=":cluster_178366227_178366229_5738963531_17_0" slope="0.00"/>
        <vehicle id="veh1" x="1896.92" y="1218.11" angle="192.60" type="veh_passenger" speed="16.51" pos="55.12" lane="-1000356136#4_0" slope="0.00"/>
        <vehicle id="veh3" x="2068.76" y="1212.44" angle="18.96" type="veh_passenger" speed="5.21" pos="1.26" lane=":178368079_4_0" slope="0.00"/>
    </timestep>
    <timestep time="20.00">
        <vehicle id="veh0" x="2304.86" y="375.29" angle="246.78" type="veh_passenger" speed="8.89" pos="14.33" lane=":cluster_178366227_178366229_5738963531_17_0" slope="0.00"/>
        <vehicle id="veh1" x="1892.79" y="1199.62" angle="192.60" type="veh_passenger" speed="18.94" pos="74.06" lane="-1000356136#4_0" slope="0.00"/>
        <vehicle id="veh3" x="2072.99" y="1215.22" angle="59.76" type="veh_passenger" speed="5.48" pos="6.74" lane=":178368079_4_0" slope="0.00"/>
        <vehicle id="veh4" x="1425.75" y="346.78" angle="111.35" type="veh_passenger" speed="0.00" pos="5.10" lane="93611660#6_0" slope="0.00"/>
    </timestep>
    <timestep time="21.00">
        <vehicle id="veh0" x="2297.20" y="368.64" angle="215.57" type="veh_passenger" speed="10.55" pos="0.26" lane="17188920#1_1" slope="0.00"/>
        <vehicle id="veh1" x="1888.44" y="1180.17" angle="192.60" type="veh_passenger" speed="19.94" pos="93.99" lane="-1000356136#4_0" slope="0.00"/>
        <vehicle id="veh3" x="2078.85" y="1213.32" angle="109.24" type="veh_passenger" speed="6.18" pos="3.88" lane="-657499235#16_0" slope="0.00"/>
        <vehicle id="veh4" x="1427.84" y="345.97" angle="111.35" type="veh_passenger" speed="2.25" pos="7.35" lane="93611660#6_0" slope="0.00"/>
    </timestep>
    <timestep time="22.00">
        <vehicle id="veh0" x="2294.25" y="355.60" angle="178.89" type="veh_passenger" speed="12.98" pos="13.24" lane="17188920#1_0" slope="0.00"/>
        <vehicle id="veh1" x="1884.14" y="1160.89" angle="192.60" type="veh_passenger" speed="19.75" pos="113.74" lane="-1000356136#4_0" slope="0.00"/>
        <vehicle id="veh3" x="2086.29" y="1210.45" angle="111.11" type="veh_passenger" speed="7.97" pos="11.85" lane="-657499235#16_0" slope="0.00"/>
        <vehicle id="veh4" x="1432.24" y="344.25" angle="111.35" type="veh_passenger" speed="4.72" pos="12.07" lane="93611660#6_0" slope="0.00"/>
    </timestep>
    <timestep time="23.00">
        <vehicle id="veh0" x="2294.54" y="340.67" angle="178.89" type="veh_passenger" speed="14.94" pos="28.18" lane="17188920#1_0" slope="0.00"/>
        <vehicle id="veh1" x="1879.71" y="1141.08" angle="192.60" type="veh_passenger" speed="20.30" pos="134.04" lane="-1000356136#4_0" slope="0.00"/>
        <vehicle id="veh3" x="2095.56" y="1206.87" angle="111.11" type="veh_passenger" speed="9.94" pos="21.80" lane="-657499235#16_0" slope="0.00"/>
        <vehicle id="veh4" x="1437.89" y="342.04" angle="111.35" type="veh_passenger" speed="6.06" pos="18.13" lane="93611660#6_0" slope="0.00"/>
    </timestep>
    <timestep time="24.00">
        <vehicle id="veh0" x="2294.87" y="323.30" angle="178.89" type="veh_passenger" speed="17.37" pos="45.55" lane="17188920#1_0" slope="0.00"/>
        <vehicle id="veh1" x="1875.33" y="1121.49" angle="192.61" type="veh_passenger" speed="20.07" pos="4.30" lane=":178420215_0_0" slope="0.00"/>
        <vehicle id="veh3" x="2106.45" y="1202.67" angle="111.11" type="veh_passenger" speed="11.67" pos="33.46" lane="-657499235#16_0" slope="0.00"/>
        <vehicle id="veh4" x="1444.85" y="339.32" angle="111.35" type="veh_passenger" speed="7.48" pos="25.61" lane="93611660#6_0" slope="0.00"/>
        <vehicle id="veh5" x="1378.81" y="1016.33" angle="10.08" type="veh_passenger" speed="0.00" pos="5.10" lane="-656588509#0_0" slope="0.00"/>
    </timestep>
    <timestep time="25.00">
        <vehicle id="veh0" x="2295.23" y="304.51" angle="178.89" type="veh_passenger" speed="18.79" pos="64.34" lane="17188920#1_0" slope="0.00"/>
        <vehicle id="veh1" x="1870.82" y="1101.35" angle="192.62" type="veh_passenger" speed="20.64" pos="14.04" lane="-1000356136#3_0" slope="0.00"/>
        <vehicle id="veh3" x="2119.10" y="1197.78" angle="111.11" type="veh_passenger" speed="13.56" pos="47.02" lane="-657499235#16_0" slope="0.00"/>
        <vehicle id="veh4" x="1453.25" y="336.04" angle="111.35" type="veh_passenger" speed="9.01" pos="34.63" lane="93611660#6_0" slope="0.00"/>
        <vehicle id="veh5" x="1379.12" y="1018.05" angle="10.08" type="veh_passenger" speed="1.75" pos="6.85" lane="-656588509#0_0" slope="0.00"/>
    </timestep>
    <timestep time="26.00">
        <vehicle id="veh0" x="2295.62" y="284.38" angle="178.94" type="veh_passenger" speed="20.21" pos="4.43" lane=":cluster_178347787_5738961423_5738961424_5738961425_2_0" slope="0.00"/>
        <vehicle id="veh1" x="1866.40" y="1081.61" angle="192.62" type="veh_passenger" speed="20.23" pos="34.27" lane="-1000356136#3_0" slope="0.00"/>
        <vehicle id="veh3" x="2133.80" y="1192.15" angle="110.89" type="veh_passenger" speed="15.74" pos="11.57" lane=":178368479_7_0" slope="0.00"/>
        <vehicle id="veh4" x="1462.93" y="332.29" angle="110.94" type="veh_passenger" speed="10.38" pos="5.11" lane=":7069416720_5_0" slope="0.00"/>
        <vehicle id="veh5" x="1379.76" y="1021.66" angle="10.08" type="veh_passenger" speed="3.66" pos="10.51" lane="-656588509#0_0" slope="0.00"/>
    </timestep>
    <timestep time="27.00">
        <vehicle id="veh0" x="2293.16" y="262.51" angle="188.41" type="veh_passenger" speed="22.24" pos="9.94" lane="658614749#1_0" slope="0.00"/>
        <vehicle id="veh1" x="1861.94" y="1061.64" angle="192.62" type="veh_passenger" speed="20.46" pos="54.73" lane="-1000356136#3_0" slope="0.00"/>
        <vehicle id="veh3" x="2150.92" y="1185.67" angle="110.72" type="veh_passenger" speed="18.29" pos="15.48" lane="-657499235#15_0" slope="0.00"/>
        <vehicle id="veh4" x="1474.01" y="328.35" angle="108.80" type="veh_passenger" speed="11.76" pos="0.84" lane=":6863995527_6_0" slope="0.00"/>
        <vehicle id="veh5" x="1380.77" y="1027.31" angle="10.08" type="veh_passenger" speed="5.75" pos="16.25" lane="-656588509#0_0" slope="0.00"/>
    </timestep>
    <timestep time="28.00">
        <vehicle id="veh0" x="2289.73" y="239.30" angle="188.37" type="veh_passenger" speed="23.46" pos="6.04" lane="658614749#2_0" slope="0.00"/>
        <vehicle id="veh1" x="1857.66" y="1042.54" angle="192.62" type="veh_passenger" speed="19.58" pos="74.31" lane="-1000356136#3_0" slope="0.00"/>
        <vehicle id="veh3" x="2170.37" y="1178.28" angle="110.92" type="veh_passenger" speed="20.82" pos="7.46" lane="-657499235#14_0" slope="0.00"/>
        <vehicle id="veh4" x="1487.43" y="323.78" angle="108.79" type="veh_passenger" speed="14.18" pos="5.50" lane="93611660#8_0" slope="0.00"/>
        <vehicle id="veh5" x="1382.05" y="1034.53" angle="10.08" type="veh_passenger" speed="7.33" pos="23.58" lane="-656588509#0_0" slope="0.00"/>
    </timestep>
    <timestep time="29.00">
        <vehicle id="veh0" x="2286.97" y="220.54" angle="188.33" type="veh_passenger" speed="18.96" pos="5.77" lane=":cluster_7085743456_7085743459_0_0" slope="0.00"/>
        <vehicle id="veh1" x="1853.67" y="1022.88" angle="191.45" type="veh_passenger" speed="20.06" pos="19.84" lane=":cluster_178328901_178420214_6177454290_2_0" slope="0.00"/>
        <vehicle id="veh3" x="2191.30" y="1170.19" angle="111.41" type="veh_passenger" speed="22.44" pos="9.24" lane=":cluster_178393891_7895574278_13_0" slope="0.00"/>
        <vehicle id="veh4" x="1501.63" y="319.50" angle="102.75" type="veh_passenger" speed="14.85" pos="20.35" lane="93611660#8_0" slope="0.00"/>
        <vehicle id="veh5" x="1383.61" y="1043.31" angle="10.08" type="veh_passenger" speed="8.92" pos="32.51" lane="-656588509#0_0" slope="0.00"/>
        <vehicle id="veh6" x="1952.13" y="1100.85" angle="282.37" type="veh_passenger" speed="6.46" pos="5.10" lane="-1185026583_0" slope="0.00"/>
    </timestep>
    <timestep time="30.00">
        <vehicle id="veh0" x="2284.87" y="206.24" angle="188.37" type="veh_passenger" speed="14.46" pos="14.01" lane="658614749#3_0" slope="0.00"/>
        <vehicle id="veh1" x="1850.40" y="1006.70" angle="191.45" type="veh_passenger" speed="16.51" pos="36.35" lane=":cluster_178328901_178420214_6177454290_2_0" slope="0.00"/>
        <vehicle id="veh3" x="2214.07" y="1161.10" angle="111.89" type="veh_passenger" speed="24.53" pos="6.81" lane=":178338570_4_0" slope="0.00"/>
        <vehicle id="veh4" x="1518.27" y="315.84" angle="102.41" type="veh_passenger" speed="17.05" pos="37.40" lane="93611660#8_0" slope="0.00"/>
        <vehicle id="veh5" x="1385.48" y="1053.81" angle="10.08" type="veh_passenger" speed="10.66" pos="43.17" lane="-656588509#0_0" slope="0.00"/>
        <vehicle id="veh6" x="1945.91" y="1102.22" angle="282.37" type="veh_passenger" speed="6.36" pos="11.46" lane="-1185026583_0" slope="0.00"/>
    </timestep>
    <timestep time="31.00">
        <vehicle id="veh0" x="2283.42" y="196.38" angle="188.37" type="veh_passenger" speed="9.96" pos="23.98" lane="658614749#3_0" slope="0.00"/>
        <vehicle id="veh1" x="1848.13" y="994.63" angle="190.08" type="veh_passenger" speed="12.28" pos="7.11" lane="-1000356136#0_0" slope="0.00"/>
        <vehicle id="veh3" x="2238.79" y="1151.22" angle="111.77" type="veh_passenger" speed="26.62" pos="22.19" lane="-657499235#10_0" slope="0.00"/>
        <vehicle id="veh4" x="1536.59" y="311.92" angle="101.94" type="veh_passenger" speed="18.73" pos="2.76" lane="93611660#9_0" slope="0.00"/>
        <vehicle id="veh5" x="1387.79" y="1066.43" angle="10.86" type="veh_passenger" speed="12.83" pos="56.00" lane="-656588509#0_0" slope="0.00"/>
        <vehicle id="veh6" x="1937.56" y="1104.18" angle="283.50" type="veh_passenger" speed="8.57" pos="6.51" lane=":178326643_2_0" slope="0.00"/>
    </timestep>
    <timestep time="32.00">
        <vehicle id="veh0" x="2282.63" y="190.98" angle="188.37" type="veh_passenger" speed="5.46" pos="29.44" lane="658614749#3_0" slope="0.00"/>
        <vehicle id="veh1" x="1846.63" y="986.18" angle="190.08" type="veh_passenger" speed="8.58" pos="15.69" lane="-1000356136#0_0" slope="0.00"/>
        <vehicle id="veh3" x="2264.61" y="1140.91" angle="111.77" type="veh_passenger" speed="27.80" pos="50.00" lane="-657499235#10_0" slope="0.00"/>
        <vehicle id="veh4" x="1556.80" y="307.69" angle="101.81" type="veh_passenger" speed="20.65" pos="23.41" lane="93611660#9_0" slope="0.00"/>
        <vehicle id="veh5" x="1390.67" y="1080.94" angle="11.22" type="veh_passenger" speed="14.79" pos="70.79" lane="-656588509#0_0" slope="0.00"/>
        <vehicle id="veh6" x="1927.33" y="1106.78" angle="284.78" type="veh_passenger" speed="10.55" pos="6.44" lane="-17172689_0" slope="0.00"/>
    </timestep>
    <timestep time="33.00">
        <vehicle id="veh0" x="2282.49" y="190.03" angle="188.37" type="veh_passenger" speed="0.96" pos="30.40" lane="658614749#3_0" slope="0.00"/>
        <vehicle id="veh1" x="1845.89" y="982.03" angle="190.08" type="veh_passenger" speed="4.22" pos="19.91" lane="-1000356136#0_0" slope="0.00"/>
        <vehicle id="veh3" x="2286.25" y="1132.27" angle="111.77" type="veh_passenger" speed="23.30" pos="73.30" lane="-657499235#10_0" slope="0.00"/>
        <vehicle id="veh4" x="1578.39" y="303.18" angle="101.81" type="veh_passenger" speed="22.06" pos="45.47" lane="93611660#9_0" slope="0.00"/>
        <vehicle id="veh5" x="1394.65" y="1097.20" angle="19.52" type="veh_passenger" speed="16.78" pos="87.57" lane="-656588509#0_0" slope="0.00"/>
        <vehicle id="veh6" x="1917.00" y="1109.51" angle="284.78" type="veh_passenger" speed="10.69" pos="17.13" lane="-17172689_0" slope="0.00"/>
    </timestep>
    <timestep time="34.00">
        <vehicle id="veh0" x="2282.46" y="189.87" angle="188.37" type="veh_passenger" speed="0.16" pos="30.56" lane="658614749#3_0" slope="0.00"/>
        <vehicle id="veh1" x="1844.68" y="975.92" angle="191.40" type="veh_passenger" speed="6.23" pos="4.65" lane=":178420213_1_0" slope="0.00"/>
        <vehicle id="veh3" x="2303.26" y="1124.68" angle="115.77" type="veh_passenger" speed="18.80" pos="6.24" lane="-657499235#8_0" slope="0.00"/>
        <vehicle id="veh4" x="1601.84" y="298.39" angle="101.11" type="veh_passenger" speed="23.93" pos="0.85" lane="93611660#10_0" slope="0.00"/>
        <vehicle id="veh5" x="1401.03" y="1113.26" angle="24.37" type="veh_passenger" speed="17.30" pos="104.86" lane="-656588509#0_0" slope="0.00"/>
        <vehicle id="veh6" x="1906.69" y="1112.23" angle="284.78" type="veh_passenger" speed="10.66" pos="27.78" lane="-17172689_0" slope="0.00"/>
        <vehicle id="veh7" x="1058.95" y="957.17" angle="193.89" type="veh_passenger" speed="0.00" pos="5.10" lane="-17193752#8_0" slope="0.00"/>
    </timestep>
    <timestep time="35.00">
        <vehicle id="veh0" x="2282.45" y="189.74" angle="188.37" type="veh_passenger" speed="0.13" pos="30.69" lane="658614749#3_0" slope="0.00"/>
        <vehicle id="veh1" x="1842.55" y="967.53" angle="195.10" type="veh_passenger" speed="8.66" pos="13.30" lane=":178420213_1_0" slope="0.00"/>
        <vehicle id="veh3" x="2315.65" y="1117.88" angle="121.63" type="veh_passenger" speed="14.30" pos="20.54" lane="-657499235#8_0" slope="0.00"/>
        <vehicle id="veh4" x="1626.94" y="293.67" angle="100.67" type="veh_passenger" speed="25.54" pos="4.21" lane=":cluster_5268455001_5786650356_6_0" slope="0.00"/>
        <vehicle id="veh5" x="1406.38" y="1125.23" angle="23.60" type="veh_passenger" speed="13.11" pos="117.97" lane="-656588509#0_0" slope="0.00"/>
        <vehicle id="veh6" x="1896.72" y="1114.86" angle="284.78" type="veh_passenger" speed="10.31" pos="38.10" lane="-17172689_0" slope="0.00"/>
        <vehicle id="veh7" x="1058.60" y="955.78" angle="193.89" type="veh_passenger" speed="1.43" pos="6.53" lane="-17193752#8_0" slope="0.00"/>
    </timestep>
    <timestep time="36.00">
        <vehicle id="veh0" x="2282.45" y="189.74" angle="188.37" type="veh_passenger" speed="0.00" pos="30.69" lane="658614749#3_0" slope="0.00"/>
        <vehicle id="veh1" x="1839.18" y="957.61" angle="199.36" type="veh_passenger" speed="10.48" pos="6.63" lane="-657716995#5_0" slope="0.00"/>
        <vehicle id="veh3" x="2324.52" y="1111.58" angle="127.87" type="veh_passenger" speed="11.01" pos="31.55" lane="-657499235#8_0" slope="0.00"/>
        <vehicle id="veh4" x="1654.22" y="288.51" angle="100.82" type="veh_passenger" speed="27.75" pos="22.58" lane="93611660#11_0" slope="0.00"/>
        <vehicle id="veh5" x="1410.16" y="1134.06" angle="23.18" type="veh_passenger" speed="9.61" pos="127.58" lane="-656588509#0_0" slope="0.00"/>
        <vehicle id="veh6" x="1888.39" y="1117.05" angle="284.78" type="veh_passenger" speed="8.62" pos="46.71" lane="-17172689_0" slope="0.00"/>
        <vehicle id="veh7" x="1057.63" y="951.86" angle="193.89" type="veh_passenger" speed="4.03" pos="10.57" lane="-17193752#8_0" slope="0.00"/>
    </timestep>
    <timestep time="37.00">
        <vehicle id="veh0" x="2282.45" y="189.74" angle="188.37" type="veh_passenger" speed="0.00" pos="30.69" lane="658614749#3_0" slope="0.00"/>
        <vehicle id="veh1" x="1835.69" y="945.28" angle="192.41" type="veh_passenger" speed="12.83" pos="19.46" lane="-657716995#5_0" slope="0.00"/>
        <vehicle id="veh3" x="2327.21" y="1104.54" angle="171.75" type="veh_passenger" speed="7.96" pos="7.52" lane=":178390791_6_0" slope="0.00"/>
        <vehicle id="veh4" x="1683.49" y="282.84" angle="100.98" type="veh_passenger" speed="29.82" pos="52.40" lane="93611660#11_0" slope="0.00"/>
        <vehicle id="veh5" x="1412.40" y="1139.29" angle="23.18" type="veh_passenger" speed="5.69" pos="133.27" lane="-656588509#0_0" slope="0.00"/>
        <vehicle id="veh6" x="1884.41" y="1118.10" angle="284.78" type="veh_passenger" speed="4.12" pos="50.83" lane="-17172689_0" slope="0.00"/>
        <vehicle id="veh7" x="1056.14" y="945.84" angle="193.89" type="veh_passenger" speed="6.21" pos="16.77" lane="-17193752#8_0" slope="0.00"/>
    </timestep>
    <timestep time="38.00">
        <vehicle id="veh0" x="2282.45" y="189.74" angle="188.37" type="veh_passenger" speed="0.00" pos="30.69" lane="658614749#3_0" slope="0.00"/>
        <vehicle id="veh1" x="1832.44" y="930.54" angle="192.55" type="veh_passenger" speed="15.10" pos="4.39" lane=":754485846_0_0" slope="0.00"/>
        <vehicle id="veh3" x="2324.80" y="1097.20" angle="200.04" type="veh_passenger" speed="7.74" pos="4.28" lane="-17182707#3_0" slope="0.00"/>
        <vehicle id="veh4" x="1711.76" y="277.36" angle="100.98" type="veh_passenger" speed="28.80" pos="6.95" lane="93611660#12_0" slope="0.00"/>
        <vehicle id="veh5" x="1415.67" y="1144.58" angle="34.00" type="veh_passenger" speed="6.32" pos="4.08" lane=":178425070_3_0" slope="0.00"/>
        <vehicle id="veh6" x="1878.63" y="1118.82" angle="275.69" type="veh_passenger" speed="5.87" pos="4.98" lane=":178420215_3_0" slope="0.00"/>
        <vehicle id="veh7" x="1054.07" y="937.46" angle="193.89" type="veh_passenger" speed="8.63" pos="25.41" lane="-17193752#8_0" slope="0.00"/>
    </timestep>
    <timestep time="39.00">
        <vehicle id="veh0" x="2282.45" y="189.74" angle="188.37" type="veh_passenger" speed="0.00" pos="30.69" lane="658614749#3_0" slope="0.00"/>
        <vehicle id="veh1" x="1828.54" y="913.51" angle="192.99" type="veh_passenger" speed="17.47" pos="6.27" lane="-657716995#3_0" slope="0.00"/>
        <vehicle id="veh3" x="2321.45" y="1088.40" angle="200.83" type="veh_passenger" speed="9.42" pos="13.71" lane="-17182707#3_0" slope="0.00"/>
        <vehicle id="veh4" x="1740.85" y="271.88" angle="100.47" type="veh_passenger" speed="29.60" pos="4.65" lane=":5064284342_1_0" slope="0.00"/>
        <vehicle id="veh5" x="1422.33" y="1145.09" angle="94.86" type="veh_passenger" speed="7.05" pos="1.49" lane="-894432633#3_0" slope="0.00"/>
        <vehicle id="veh6" x="1874.56" y="1116.49" angle="240.20" type="veh_passenger" speed="5.00" pos="9.98" lane=":178420215_3_0" slope="0.00"/>
        <vehicle id="veh7" x="1051.50" y="927.10" angle="193.98" type="veh_passenger" speed="10.67" pos="6.07" lane=":8410098302_0_0" slope="0.00"/>
        <vehicle id="veh8" x="1380.00" y="885.53" angle="285.32" type="veh_passenger" speed="0.00" pos="5.10" lane="-656588510#0_0" slope="0.00"/>
    </timestep>
    <timestep time="40.00">
        <vehicle id="veh0" x="2282.45" y="189.74" angle="188.37" type="veh_passenger" speed="0.00" pos="30.69" lane="658614749#3_0" slope="0.00"/>
        <vehicle id="veh1" x="1824.06" y="893.96" angle="192.94" type="veh_passenger" speed="20.05" pos="10.52" lane="-657716995#2_0" slope="0.00"/>
        <vehicle id="veh3" x="2317.49" y="1077.98" angle="200.83" type="veh_passenger" speed="11.14" pos="24.85" lane="-17182707#3_0" slope="0.00"/>
        <vehicle id="veh4" x="1770.17" y="266.27" angle="102.28" type="veh_passenger" speed="29.86" pos="6.74" lane="93611660#14_0" slope="0.00"/>
        <vehicle id="veh5" x="1430.41" y="1142.78" angle="105.94" type="veh_passenger" speed="8.40" pos="9.90" lane="-894432633#3_0" slope="0.00"/>
        <vehicle id="veh6" x="1873.14" y="1111.71" angle="196.53" type="veh_passenger" speed="5.01" pos="3.42" lane="-1000356136#3_0" slope="0.00"/>
        <vehicle id="veh7" x="1048.57" y="915.33" angle="194.02" type="veh_passenger" speed="12.12" pos="8.81" lane="-17193752#7_0" slope="0.00"/>
        <vehicle id="veh8" x="1378.12" y="886.04" angle="285.32" type="veh_passenger" speed="1.95" pos="7.05" lane="-656588510#0_0" slope="0.00"/>
    </timestep>
    <timestep time="41.00">
        <vehicle id="veh0" x="2282.45" y="189.74" angle="188.37" type="veh_passenger" speed="0.00" pos="30.69" lane="658614749#3_0" slope="0.00"/>
        <vehicle id="veh1" x="1819.16" y="872.30" angle="192.56" type="veh_passenger" speed="22.21" pos="4.76" lane="-657716995#1_0" slope="0.00"/>
        <vehicle id="veh3" x="2312.86" y="1065.81" angle="200.83" type="veh_passenger" speed="13.03" pos="37.88" lane="-17182707#3_0" slope="0.00"/>
        <vehicle id="veh4" x="1798.87" y="260.02" angle="102.28" type="veh_passenger" speed="29.37" pos="36.11" lane="93611660#14_0" slope="0.00"/>
        <vehicle id="veh5" x="1439.94" y="1140.06" angle="105.94" type="veh_passenger" speed="9.91" pos="19.80" lane="-894432633#3_0" slope="0.00"/>
        <vehicle id="veh6" x="1871.72" y="1105.35" angle="192.62" type="veh_passenger" speed="6.51" pos="9.94" lane="-1000356136#3_0" slope="0.00"/>
        <vehicle id="veh7" x="1045.29" y="902.08" angle="193.68" type="veh_passenger" speed="13.65" pos="2.31" lane=":7455655861_0_0" slope="0.00"/>
        <vehicle id="veh8" x="1373.76" y="887.24" angle="285.32" type="veh_passenger" speed="4.51" pos="11.57" lane="-656588510#0_0" slope="0.00"/>
    </timestep>
    <timestep time="42.00">
        <vehicle id="veh0" x="2282.45" y="189.74" angle="188.37" type="veh_passenger" speed="0.00" pos="30.69" lane="658614749#3_0" slope="0.00"/>
        <vehicle id="veh1" x="1813.82" y="848.32" angle="192.55" type="veh_passenger" speed="24.57" pos="29.33" lane="-657716995#1_0" slope="0.00"/>
        <vehicle id="veh3" x="2308.28" y="1053.79" angle="200.83" type="veh_passenger" speed="12.86" pos="50.73" lane="-17182707#3_0" slope="0.00"/>
        <vehicle id="veh4" x="1825.61" y="254.19" angle="102.28" type="veh_passenger" speed="27.37" pos="63.48" lane="93611660#14_0" slope="0.00"/>
        <vehicle id="veh5" x="1450.87" y="1136.94" angle="105.94" type="veh_passenger" speed="11.37" pos="31.17" lane="-894432633#3_0" slope="0.00"/>
        <vehicle id="veh6" x="1869.81" y="1096.81" angle="192.62" type="veh_passenger" speed="8.76" pos="18.70" lane="-1000356136#3_0" slope="0.00"/>
        <vehicle id="veh7" x="1042.20" y="888.64" angle="192.55" type="veh_passenger" speed="13.79" pos="6.58" lane="-17193752#6_0" slope="0.00"/>
        <vehicle id="veh8" x="1368.04" y="888.81" angle="285.32" type="veh_passenger" speed="5.94" pos="17.50" lane="-656588510#0_0" slope="0.00"/>
    </timestep>